# ODT 1.0
# Table Start
# Title: mmArchive Data Table, Thu Mar 27 11:36:50 +07 2025
# Columns: {UHH_ThetaEvolve:evolve:Total energy} {UHH_ThetaEvolve:evolve:Energy calc count} {UHH_ThetaEvolve:evolve:Max dm/dt} UHH_ThetaEvolve:evolve:dE/dt {UHH_ThetaEvolve:evolve:Delta E} UHH_ThetaEvolve:evolve:Temperature Oxs_CubicAnisotropy::Energy Oxs_UniformExchange::Energy {Oxs_UniformExchange::Max Spin Ang} {Oxs_UniformExchange::Stage Max Spin Ang} {Oxs_UniformExchange::Run Max Spin Ang} Oxs_ScriptUZeeman::Energy Oxs_ScriptUZeeman::B Oxs_ScriptUZeeman::Bx Oxs_ScriptUZeeman::By Oxs_ScriptUZeeman::Bz Oxs_Demag::Energy    Oxs_TimeDriver::Iteration {Oxs_TimeDriver::Stage iteration} Oxs_TimeDriver::Stage Oxs_TimeDriver::mx   Oxs_TimeDriver::my   Oxs_TimeDriver::mz   {Oxs_TimeDriver::Last time step} {Oxs_TimeDriver::Simulation time}
# Units:                     J                                       {}                                   deg/ns                           J/s                             J                                 K                               J                           J                              deg                                    deg                                      deg                               J                      mT                   mT                    mT                    mT                   J                       {}                            {}                          {}                   {}                   {}                   {}                          s                                 s                
                   -6.2096535060013571e-20                      1                                      285706.62950058363              8.5725204031948813e-14            0                                 100                           -6.4951654788237528e-20         5.2159479712493884e-27             0.0058651605101602182                    0.0058651605101602182                      0.0058651605101602182              3.8893260206337869e-24     0.0030436134653137117  0.0030436134653137117   0                     0                     2.8512251862553482e-21    0                             0                           0                    -0.59072884546755966 -0.58793697078137186  0.55260250676400746        0                                0                         
                    6.6350019317176802e-18                      501                                    1488861.1022224315             -1.2986923068476805e-05            5.2065038350138574e-20               100                           -6.3441501726680186e-20         6.6955876088643503e-18             29.464434671021468                     29.499989565523986                       29.499989565523986               3.9090961501228777e-24     0.0030775475559735319  0.0030775475559735319   0                     0                     2.851915483859718e-21    500                           500                         0                    -0.5871849365682007  -0.58474227196697359  0.54904426818849872        1.0000000000000001e-15              4.9999999999999817e-13       
                    1.3427635381855428e-16                      1001                                   3076484.6699288352             -0.00019036493299441393            4.6581779717277651e-19               100                           -4.3731328702151178e-20         1.3431718628719173e-16             96.381138874999039                     96.381138874999039                       96.381138874999039               3.5033968940914736e-24     0.0031118427314536564  0.0031118427314536564   0                     0                     2.8953566678335868e-21    1000                          1000                        0                    -0.52044522243356883 -0.51706210771147221  0.48620419800146236        1.0000000000000001e-15              1.0000000000000052e-12       
                    3.6098687788571156e-16                      1501                                   3119155.2935897307             -0.00028309984514628345            2.9671848317915811e-19               100                           -2.9951643781978467e-20         3.610137412870486e-16             137.68521533649434                     137.68521533649434                       137.68521533649434               2.5660211926563038e-24     0.0031465026331004386  0.0031465026331004386   0                     0                     3.0856764237407098e-21    1500                          1500                        0                    -0.37699489131968511 -0.37489881889391447  0.35285225242212986        1.0000000000000001e-15              1.5000000000000536e-12       
                    4.5588262508001815e-16                      2001                                   3149559.0584444837             -0.00024446509033687109            1.3884348167286445e-19               100                           -3.1331638578382379e-20         4.5591099321802323e-16             146.11625926844656                     149.43341676524031                       149.43341676524031               2.098773362698758e-24     0.0031815309367268594  0.0031815309367268594   0                     0                     2.9614017998598827e-21    2000                          2000                        0                    -0.30495286558420237 -0.30123160972793234  0.28480259394231644        1.0000000000000001e-15              2.0000000000001017e-12       
                    4.8782724936465013e-16                      2501                                   3010507.5366775296             -0.00021928094613396065            4.2423174461975307e-20               100                           -3.334586609074602e-20         4.8785763209134001e-16             147.71102105138624                     152.74166070766955                       152.74166070766955               1.9336903517245489e-24     0.0032169313529143064  0.0032169313529143064   0                     0                     2.9612057104617456e-21    2500                          2500                        0                    -0.27787435176690833 -0.27375605225836597  0.25838056188625486        1.0000000000000001e-15              2.5000000000001501e-12       
                    4.9937400381921578e-16                      3001                                   2820130.2980822581             -0.00020900007746087001           -4.7839497266171534e-21               100                           -3.3977901239747005e-20         4.9940472092466146e-16             149.01611516689738                     152.74166070766955                       152.74166070766955               1.8822115614375418e-24     0.0032527076273170079  0.0032527076273170079   0                     0                     3.258913582538007e-21    3000                          3000                        0                    -0.26750181582971427 -0.2642980046150909   0.24705184416787349        1.0000000000000001e-15              3.0000000000001985e-12       
                    5.0377779570453471e-16                      3501                                   2787394.8067779592             -0.00020492896463561948           -4.1094004072599365e-20               100                           -3.4261014456248766e-20         5.0380861776899383e-16             153.13998051701881                     156.63762201257427                       156.63762201257427               1.8759387800204869e-24     0.0032888635409686002  0.0032888635409686002   0                     0                     3.4370740583635007e-21    3500                          3500                        0                    -0.26367935803716602 -0.2593290200963615   0.24331386217717221        1.0000000000000001e-15              3.5000000000002468e-12       
                    5.0626093823749442e-16                      4001                                   2671238.6866241908             -0.00020252202222709954            1.190475539321237e-20               100                           -3.4684536749693579e-20         5.0629233475781286e-16             153.98654360672595                     158.5191571499889                        158.5191571499889                1.8731933382754955e-24     0.003325402910591383  0.003325402910591383   0                     0                     3.2861432378629992e-21    4000                          4000                        0                    -0.26040040645451873 -0.25791599042226548  0.23999982667740249        1.0000000000000001e-15              4.0000000000001486e-12       
                    5.0623199606388955e-16                      4501                                   2706459.9537606221             -0.00020273320330062424           -1.6352711269088456e-20               100                           -3.4425675041428965e-20         5.0626311025918972e-16             161.92928271245043                     166.89411108090238                       166.89411108090238               1.9003280763564384e-24     0.0033623295889078078  0.0033623295889078078   0                     0                     3.3095794131975328e-21    4500                          4500                        0                    -0.26127125305674359 -0.25789586040444634  0.23798327789038395        1.0000000000000001e-15              4.499999999999995e-12       
                    5.0661781549730673e-16                      5001                                   2740137.0128389951             -0.00020236324617846048           -1.1052602478628617e-20               100                           -3.4819098047886776e-20         5.06649705393536e-16             158.82860152607239                     166.89411108090238                       166.89411108090238               1.9137922390680366e-24     0.0033996474649545805  0.0033996474649545805   0                     0                     2.927288026384511e-21    5000                          5000                        0                    -0.26023411593342166 -0.25698796882012093  0.2367672038745447         1.0000000000000001e-15              4.9999999999998414e-12       
                    5.0697344263563073e-16                      5501                                   2736986.1239989772             -0.00020178315430449467            9.5654857783857828e-21               100                           -3.4892207016448149e-20         5.0700522263341107e-16             167.2619922942564                      168.76297428579531                       168.76297428579531               1.9260611069476827e-24     0.0034373604643990782  0.0034373604643990782   0                     0                     3.1102831750549136e-21    5500                          5500                        0                    -0.2590289528147639  -0.25568710360448338  0.23597261571933631        1.0000000000000001e-15              5.4999999999996878e-12       
                    5.0610819544830293e-16                      6001                                   2654898.402263415              -0.00020280059455528193           -1.6141736209200206e-20               100                           -3.4865088791517009e-20         5.0613995148352392e-16             173.08026362299935                     175.71562393587621                       175.71562393587621               1.9487665576310496e-24     0.0034754725498584694  0.0034754725498584694   0                     0                     3.1071048039619983e-21    6000                          6000                        0                    -0.25920852527699789 -0.25590425786036192  0.23624668641536156        1.0000000000000001e-15              5.9999999999995342e-12       
                    5.0618089339985207e-16                      6501                                   2622787.4761911356             -0.0002023258227071546           -2.139921367647994e-20               100                           -3.478490905679114e-20         5.0621276159330368e-16             174.23213160624894                     179.76611139984959                       179.76611139984959               1.9673540557880712e-24     0.0035139877212210851  0.0035139877212210851   0                     0                     2.914748251169486e-21    6500                          6500                        0                    -0.25881271646169379 -0.25421448663706186  0.23532476033594799        1.0000000000000001e-15              6.4999999999993806e-12       
                    5.0604672194448268e-16                      7001                                   2608230.5683290767             -0.00020229220790144551            2.8246033704504269e-20               100                           -3.5156288336741466e-20         5.0607869646810413e-16             176.05267832441149                     179.76611139984959                       179.76611139984959               1.9855869831924484e-24     0.0035529100159706036  0.0035529100159706036   0                     0                     3.1797791283263127e-21    7000                          7000                        0                    -0.25834974338580896 -0.25224714034200829  0.23480268779647992        1.0000000000000001e-15              6.999999999999227e-12       
# ODT 1.0
# Table Start
# Title: mmArchive Data Table, Thu Mar 27 11:36:50 +07 2025
# Columns: {UHH_ThetaEvolve:evolve:Total energy} {UHH_ThetaEvolve:evolve:Energy calc count} {UHH_ThetaEvolve:evolve:Max dm/dt} UHH_ThetaEvolve:evolve:dE/dt {UHH_ThetaEvolve:evolve:Delta E} UHH_ThetaEvolve:evolve:Temperature Oxs_CubicAnisotropy::Energy Oxs_UniformExchange::Energy {Oxs_UniformExchange::Max Spin Ang} {Oxs_UniformExchange::Stage Max Spin Ang} {Oxs_UniformExchange::Run Max Spin Ang} Oxs_ScriptUZeeman::Energy Oxs_ScriptUZeeman::B Oxs_ScriptUZeeman::Bx Oxs_ScriptUZeeman::By Oxs_ScriptUZeeman::Bz Oxs_Demag::Energy    Oxs_TimeDriver::Iteration {Oxs_TimeDriver::Stage iteration} Oxs_TimeDriver::Stage Oxs_TimeDriver::mx   Oxs_TimeDriver::my   Oxs_TimeDriver::mz   {Oxs_TimeDriver::Last time step} {Oxs_TimeDriver::Simulation time}
# Units:                     J                                       {}                                   deg/ns                           J/s                             J                                 K                               J                           J                              deg                                    deg                                      deg                               J                      mT                   mT                    mT                    mT                   J                       {}                            {}                          {}                   {}                   {}                   {}                          s                                 s                
                    5.0627784577380018e-16                      7501                                   2645413.574928625              -0.00020171715914953328            2.415990645872924e-20               100                           -3.5310593251677384e-20         5.0630988544528463e-16             169.22646436065801                     179.76611139984959                       179.76611139984959               1.9979098673135169e-24     0.0035922435095124953  0.0035922435095124953   0                     0                     3.2689238572994822e-21    7500                          7500                        0                    -0.2571067323223955  -0.2506645462707327   0.23364134534611336        1.0000000000000001e-15              7.4999999999992552e-12       
                    5.058927864192022e-16                      8001                                   2603407.2713260567             -0.00020182143740299425           -3.6313757527689545e-20               100                           -3.5838506804214905e-20         5.0592542025322579e-16             177.97013800302912                     179.97584685739994                       179.97584685739994               2.0105402276113161e-24     0.0036319923155032959  0.0036319923155032959   0                     0                     3.2026622404029781e-21    8000                          8000                        0                    -0.25590052201178437 -0.24956607496938543  0.23327232516907387        1.0000000000000001e-15              7.9999999999995055e-12       
                    5.0577381505741353e-16                      8501                                   2627906.0922029675             -0.00020151034284609419           -3.1779447401644687e-20               100                           -3.5649959358746113e-20         5.0580657497135277e-16             178.41620966369891                     179.97584685739994                       179.97584685739994               2.0261136779626328e-24     0.0036721605861821474  0.0036721605861821474   0                     0                     2.8880193058419311e-21    8500                          8500                        0                    -0.25506182876225686 -0.24873845841519437  0.2318014749874763         1.0000000000000001e-15              8.4999999999997558e-12       
                    5.0590939850966207e-16                      9001                                   2641465.8827924961             -0.0002011141477193059           -3.5692266132478058e-20               100                           -3.5320162157162731e-20         5.0594201066226236e-16             174.88241613812542                     179.97584685739994                       179.97584685739994               2.0348084277056195e-24     0.0037127525127053388  0.0037127525127053388   0                     0                     2.7059747484322281e-21    9000                          9000                        0                    -0.25335580107994932 -0.24663223414915764  0.22983767483242548        1.0000000000000001e-15              9.0000000000000061e-12       
                    5.062960589906704e-16                      9501                                   2612986.4727807324             -0.00020018690901509511           -1.2887013762067239e-21               100                           -3.6020242705024391e-20         5.0632912869258783e-16             177.90144203508376                     179.97584685739994                       179.97584685739994               2.0452567930932527e-24     0.0037537723254830228  0.0037537723254830228   0                     0                     2.9484955308339037e-21    9500                          9500                        0                    -0.25187394323759443 -0.24443786576811183  0.22693759789268267        1.0000000000000001e-15              9.5000000000002564e-12       
                    5.0598059193806251e-16                      10001                                  2766328.6470884257             -0.00019942715537353518            5.8604577710868019e-21               100                           -3.6297904694897635e-20         5.0601363982754076e-16             176.61383376910558                     179.98201930086046                       179.98201930086046               2.0576157518421621e-24     0.0037952242945189503  0.0037952242945189503   0                     0                     3.2479576008651718e-21    10000                         10000                       0                    -0.25062832651501982 -0.24284383815758889  0.22515540661665573        1.0000000000000001e-15              1.0000000000000507e-11       
                    5.050565761628494e-16                      10501                                  2604303.2966774357             -0.00020062506127932716            3.2761409640836552e-21               100                           -3.6658801185298609e-20         5.0508997325038874e-16             178.92420618974103                     179.98201930086046                       179.98201930086046               2.0710107656567764e-24     0.0038371127297525372  0.0038371127297525372   0                     0                     3.2596426350775431e-21    10500                         10500                       0                    -0.24950607468054634 -0.2422570597606809   0.22404986202634386        1.0000000000000001e-15              1.0500000000000757e-11       
                    5.0480637458590233e-16                      11001                                  2678786.6042693486             -0.00019999230656823967           -4.1674482978138694e-20               100                           -3.6872079508838403e-20         5.0484009572032439e-16             179.00370068713514                     179.98201930086046                       179.98201930086046               2.0736727559781106e-24     0.0038794419814038852  0.0038794419814038852   0                     0                     3.1488714140621623e-21    11000                         11000                       0                    -0.24710087681365489 -0.24041751667511171  0.2225538621825616         1.0000000000000001e-15              1.1000000000001007e-11       
                    5.0479465896280855e-16                      11501                                  2702019.1356569258             -0.000199354527271666           -3.8640414973437935e-21               100                           -3.6285781670347858e-20         5.0482780378242353e-16             178.54285614524252                     179.98201930086046                       179.98201930086046               2.079476684994193e-24     0.0039222164403211581  0.0039222164403211581   0                     0                     3.138882578731278e-21    11500                         11500                       0                    -0.24509013184131076 -0.23706933642031197  0.22069186359920706        1.0000000000000001e-15              1.1500000000001258e-11       
                    5.045123236019291e-16                      12001                                  2659670.9333523749             -0.00019916812556777712           -3.0325014644509135e-21               100                           -3.6784442071638887e-20         5.045457619940158e-16             179.48339201609116                     179.98201930086046                       179.98201930086046               2.0923658650529401e-24     0.0039654405383310314  0.0039654405383310314   0                     0                     3.3439576190726525e-21    12000                         12000                       0                    -0.24392117871160304 -0.23419231260789652  0.21768431786955814        1.0000000000000001e-15              1.2000000000001508e-11       
                    5.040085343724465e-16                      12501                                  2722198.3936132547             -0.00019849440250335228           -1.4874431512666033e-22               100                           -3.7586701821225703e-20         5.0404269572514965e-16             178.78286181766052                     179.98201930086046                       179.98201930086046               2.0979379926745281e-24     0.0040091187485915818  0.0040091187485915818   0                     0                     3.4232511801727685e-21    12500                         12500                       0                    -0.24190623018270971 -0.23142835719568319  0.21550149902752408        1.0000000000000001e-15              1.2500000000001758e-11       
                    5.0433307170215317e-16                      13001                                  2661948.7140335841             -0.00019747127593073955            1.9159372243447804e-20               100                           -3.8051443779507628e-20         5.0436775543246228e-16             178.87518960974654                     179.98488260653988                       179.98488260653988               2.0942972344079178e-24     0.0040532555859479581  0.0040532555859479581   0                     0                     3.365619173219559e-21    13000                         13000                       0                    -0.23885682495456076 -0.22649787355593504  0.2118515346966969         1.0000000000000001e-15              1.3000000000002009e-11       
                    5.0322839843461507e-16                      13501                                  2681628.3827256407             -0.00019720336320765196           -1.8537645144693374e-23               100                           -3.7628551691867748e-20         5.0326276280478885e-16             178.19861499726508                     179.98488260653988                       179.98488260653988               2.096923307412408e-24     0.0040978556072909953  0.0040978556072909953   0                     0                     3.2620845948030635e-21    13500                         13500                       0                    -0.23655341450299697 -0.22343060863697323  0.20874693613113071        1.0000000000000001e-15              1.3500000000002259e-11       
                    5.0356619729488523e-16                      14001                                  2687265.3693409907             -0.00019623008464411475           -1.4689559023913062e-20               100                           -3.7388603780295358e-20         5.0360024088102855e-16             178.65373438982837                     179.98488260653988                       179.98488260653988               2.0758145352089786e-24     0.0041429234119183291  0.0041429234119183291   0                     0                     3.3429418224500635e-21    14000                         14000                       0                    -0.23162475319708506 -0.21979061212368997  0.20484679694655444        1.0000000000000001e-15              1.4000000000002509e-11       
                    5.0235742803419423e-16                      14501                                  2678419.1187836174             -0.00019610047878823713           -7.077668827961302e-21               100                           -3.7816863709560483e-20         5.0239195398440135e-16             179.60473830294507                     179.98488260653988                       179.98488260653988               2.0609827520263736e-24     0.0041884636418985724  0.0041884636418985724   0                     0                     3.288852519676504e-21    14500                         14500                       0                    -0.22746937436046036 -0.21739568883688307  0.20353575035389521        1.0000000000000001e-15              1.4500000000002759e-11       
                    5.0145691590553849e-16                      15001                                  2720804.4448535005             -0.00019605305636550427           -8.2420862055233585e-21               100                           -3.8116715820486914e-20         5.0149175144258646e-16             178.81684659324563                     179.98488260653988                       179.98488260653988               2.0561832922401575e-24     0.0042344809824379727  0.0042344809824379727   0                     0                     3.2791225892016208e-21    15000                         15000                       0                    -0.22447344147114484 -0.21410392745348714  0.20074956769947622        1.0000000000000001e-15              1.5000000000002284e-11       
                    5.0140194616732823e-16                      15501                                  2723058.9168972555             -0.00019587548533949616           -1.7620204954872484e-20               100                           -3.9073793574258423e-20         5.0143793151884429e-16             178.44419407386067                     179.98488260653988                       179.98488260653988               2.0275090933470966e-24     0.0042809801622504069  0.0042809801622504069   0                     0                     3.0864145490846751e-21    15500                         15500                       0                    -0.21893889461737695 -0.2098025819362965   0.19650867021369023        1.0000000000000001e-15              1.5500000000001727e-11       
                    5.008404447195553e-16                      16001                                  2716945.320324129              -0.00019466348721724905            3.8202600215582011e-20               100                           -3.8355912328500349e-20         5.0087573310630552e-16             178.57837904560878                     179.98488260653988                       179.98488260653988               2.0003506376954655e-24     0.0043279659539297178  0.0043279659539297178   0                     0                     3.0655252276433702e-21    16000                         16000                       0                    -0.21366117825119524 -0.20545532074692857  0.19206276117770688        1.0000000000000001e-15              1.6000000000001169e-11       
                    5.0048380827974996e-16                      16501                                  2689890.0208451967             -0.00019256104791734712           -1.9689590732250071e-20               100                           -3.941998257251462e-20         5.0052020510766912e-16             179.22824398869679                     179.98488260653988                       179.98488260653988               1.9784879488914666e-24     0.0043754431743251235  0.0043754431743251235   0                     0                     3.021176165435761e-21    16500                         16500                       0                    -0.20903291994078924 -0.20240947034955162  0.18728706236257986        1.0000000000000001e-15              1.6500000000000612e-11       